LAMMPS data file via write_data, version 7 Jan 2022, timestep = 100

5475 atoms
100 atom types
5460 bonds
100 bond types
10125 angles
100 angle types
11610 dihedrals
100 dihedral types
6240 impropers
100 improper types

0 45.55159 xlo xhi
0 45.55159 ylo yhi
0 45.55159 zlo zhi

Masses

1 12.01115
2 12.01115
3 12.01115
4 12.01115
5 1.00797
6 15.9994
7 1.000
8 1.000
9 1.000
10 1.000
11 1.000
12 1.000
13 1.000
14 1.000
15 1.000
16 1.000
17 1.000
18 1.000
19 1.000
20 1.000
21 1.000
22 1.000
23 1.000
24 1.000
25 1.000
26 1.000
27 1.000
28 1.000
29 1.000
30 1.000
31 1.000
32 1.000
33 1.000
34 1.000
35 1.000
36 1.000
37 1.000
38 1.000
39 1.000
40 1.000
41 1.000
42 1.000
43 1.000
44 1.000
45 1.000
46 1.000
47 1.000
48 1.000
49 1.000
50 1.000
51 1.000
52 1.000
53 1.000
54 1.000
55 1.000
56 1.000
57 1.000
58 1.000
59 1.000
60 1.000
61 1.000
62 1.000
63 1.000
64 1.000
65 1.000
66 1.000
67 1.000
68 1.000
69 1.000
70 1.000
71 1.000
72 1.000
73 1.000
74 1.000
75 1.000
76 1.000
77 1.000
78 1.000
79 1.000
80 1.000
81 1.000
82 1.000
83 1.000
84 1.000
85 1.000
86 1.000
87 1.000
88 1.000
89 1.000
90  6.94100
91 12.01115
92 18.99840
93 14.00670
94 15.99940
95 32.06400
96 1.00
97 1.00
98 1.00
99 1.00
100 1.00

Pair Coeffs # lj/class2/coul/cut

1 0.0634 3.7584
2 0.0674 3.6348
3 0.071 3.884
4 0.0688 3.8727
5 0.023 2.878
6 0.12 3.3
7 0.1 3.0
8 0.1 3.0
9 0.1 3.0
10 0.1 3.0
11 0.1 3.0
12 0.1 3.0
13 0.1 3.0
14 0.1 3.0
15 0.1 3.0
16 0.1 3.0
17 0.1 3.0
18 0.1 3.0
19 0.1 3.0
20 0.1 3.0
21 0.1 3.0
22 0.1 3.0
23 0.1 3.0
24 0.1 3.0
25 0.1 3.0
26 0.1 3.0
27 0.1 3.0
28 0.1 3.0
29 0.1 3.0
30 0.1 3.0
31 0.1 3.0
32 0.1 3.0
33 0.1 3.0
34 0.1 3.0
35 0.1 3.0
36 0.1 3.0
37 0.1 3.0
38 0.1 3.0
39 0.1 3.0
40 0.1 3.0
41 0.1 3.0
42 0.1 3.0
43 0.1 3.0
44 0.1 3.0
45 0.1 3.0
46 0.1 3.0
47 0.1 3.0
48 0.1 3.0
49 0.1 3.0
50 0.1 3.0
51 0.1 3.0
52 0.1 3.0
53 0.1 3.0
54 0.1 3.0
55 0.1 3.0
56 0.1 3.0
57 0.1 3.0
58 0.1 3.0
59 0.1 3.0
60 0.1 3.0
61 0.1 3.0
62 0.1 3.0
63 0.1 3.0
64 0.1 3.0
65 0.1 3.0
66 0.1 3.0
67 0.1 3.0
68 0.1 3.0
69 0.1 3.0
70 0.1 3.0
71 0.1 3.0
72 0.1 3.0
73 0.1 3.0
74 0.1 3.0
75 0.1 3.0
76 0.1 3.0
77 0.1 3.0
78 0.1 3.0
79 0.1 3.0
80 0.1 3.0
81 0.1 3.0
82 0.1 3.0
83 0.1 3.0
84 0.1 3.0
85 0.1 3.0
86 0.1 3.0
87 0.1 3.0
88 0.1 3.0
89 0.1 3.0
90 0.1 3.0
91 0.1 3.0
92 0.1 3.0
93 0.1 3.0
94 0.1 3.0
95 0.1 3.0
96 0.1 3.0
97 0.1 3.0
98 0.1 3.0
99 0.1 3.0
100 0.1 3.0

Bond Coeffs # class2

1 1.53 299.67 -501.77 679.81
2 1.101 345 -691.89 844.6
3 1.53 299.67 -501.77 679.81
4 1.101 345 -691.89 844.6
5 1.42 400.4 -835.2 1313
6 1.101 345 -691.89 844.6
7 1.53 299.67 -501.77 679.81
8 1.42 400.4 -835.2 1313
9 1.101 345 -691.89 844.6
10 1.0 1.0 1.0 1.0
11 1.0 1.0 1.0 1.0
12 1.0 1.0 1.0 1.0
13 1.0 1.0 1.0 1.0
14 1.0 1.0 1.0 1.0
15 1.0 1.0 1.0 1.0
16 1.0 1.0 1.0 1.0
17 1.0 1.0 1.0 1.0
18 1.0 1.0 1.0 1.0
19 1.0 1.0 1.0 1.0
20 1.0 1.0 1.0 1.0
21 1.0 1.0 1.0 1.0
22 1.0 1.0 1.0 1.0
23 1.0 1.0 1.0 1.0
24 1.0 1.0 1.0 1.0
25 1.0 1.0 1.0 1.0
26 1.0 1.0 1.0 1.0
27 1.0 1.0 1.0 1.0
28 1.0 1.0 1.0 1.0
29 1.0 1.0 1.0 1.0
30 1.0 1.0 1.0 1.0
31 1.0 1.0 1.0 1.0
32 1.0 1.0 1.0 1.0
33 1.0 1.0 1.0 1.0
34 1.0 1.0 1.0 1.0
35 1.0 1.0 1.0 1.0
36 1.0 1.0 1.0 1.0
37 1.0 1.0 1.0 1.0
38 1.0 1.0 1.0 1.0
39 1.0 1.0 1.0 1.0
40 1.0 1.0 1.0 1.0
41 1.0 1.0 1.0 1.0
42 1.0 1.0 1.0 1.0
43 1.0 1.0 1.0 1.0
44 1.0 1.0 1.0 1.0
45 1.0 1.0 1.0 1.0
46 1.0 1.0 1.0 1.0
47 1.0 1.0 1.0 1.0
48 1.0 1.0 1.0 1.0
49 1.0 1.0 1.0 1.0
50 1.0 1.0 1.0 1.0
51 1.0 1.0 1.0 1.0
52 1.0 1.0 1.0 1.0
53 1.0 1.0 1.0 1.0
54 1.0 1.0 1.0 1.0
55 1.0 1.0 1.0 1.0
56 1.0 1.0 1.0 1.0
57 1.0 1.0 1.0 1.0
58 1.0 1.0 1.0 1.0
59 1.0 1.0 1.0 1.0
60 1.0 1.0 1.0 1.0
61 1.0 1.0 1.0 1.0
62 1.0 1.0 1.0 1.0
63 1.0 1.0 1.0 1.0
64 1.0 1.0 1.0 1.0
65 1.0 1.0 1.0 1.0
66 1.0 1.0 1.0 1.0
67 1.0 1.0 1.0 1.0
68 1.0 1.0 1.0 1.0
69 1.0 1.0 1.0 1.0
70 1.0 1.0 1.0 1.0
71 1.0 1.0 1.0 1.0
72 1.0 1.0 1.0 1.0
73 1.0 1.0 1.0 1.0
74 1.0 1.0 1.0 1.0
75 1.0 1.0 1.0 1.0
76 1.0 1.0 1.0 1.0
77 1.0 1.0 1.0 1.0
78 1.0 1.0 1.0 1.0
79 1.0 1.0 1.0 1.0
80 1.0 1.0 1.0 1.0
81 1.0 1.0 1.0 1.0
82 1.0 1.0 1.0 1.0
83 1.0 1.0 1.0 1.0
84 1.0 1.0 1.0 1.0
85 1.0 1.0 1.0 1.0
86 1.0 1.0 1.0 1.0
87 1.0 1.0 1.0 1.0
88 1.0 1.0 1.0 1.0
89 1.0 1.0 1.0 1.0
90 1.0 1.0 1.0 1.0
91 1.0 1.0 1.0 1.0
92 1.0 1.0 1.0 1.0
93 1.0 1.0 1.0 1.0
94 1.0 1.0 1.0 1.0
95 1.0 1.0 1.0 1.0
96 1.0 1.0 1.0 1.0
97 1.0 1.0 1.0 1.0
98 1.0 1.0 1.0 1.0
99 1.0 1.0 1.0 1.0
100 1.0 1.0 1.0 1.0

Angle Coeffs # class2

1 110.77 41.453 -10.604 5.129
2 107.66 39.641 -12.921 -2.4318
3 112.67 39.516 -7.443 -9.5583
4 110.77 41.453 -10.604 5.129
5 110.77 41.453 -10.604 5.129
6 107.66 39.641 -12.921 -2.4318
7 111.27 54.538 -8.3642 -13.084
8 110.77 41.453 -10.604 5.129
9 108.73 58.545 -10.809 -12.401
10 107.66 39.641 -12.921 -2.4318
11 104.5 35.745 -10.007 -6.2729
12 111.27 54.538 -8.3642 -13.084
13 110.77 41.453 -10.604 5.129
14 104.5 35.745 -10.007 -6.2729
15 108.73 58.545 -10.809 -12.401
16 107.66 39.641 -12.921 -2.4318
17 100 50 0 0
18 100 50 0 0
19 100 50 0 0
20 100 50 0 0
21 100 50 0 0
22 100 50 0 0
23 100 50 0 0
24 100 50 0 0
25 100 50 0 0
26 100 50 0 0
27 100 50 0 0
28 100 50 0 0
29 100 50 0 0
30 100 50 0 0
31 100 50 0 0
32 100 50 0 0
33 100 50 0 0
34 100 50 0 0
35 100 50 0 0
36 100 50 0 0
37 100 50 0 0
38 100 50 0 0
39 100 50 0 0
40 100 50 0 0
41 100 50 0 0
42 100 50 0 0
43 100 50 0 0
44 100 50 0 0
45 100 50 0 0
46 100 50 0 0
47 100 50 0 0
48 100 50 0 0
49 100 50 0 0
50 100 50 0 0
51 100 50 0 0
52 100 50 0 0
53 100 50 0 0
54 100 50 0 0
55 100 50 0 0
56 100 50 0 0
57 100 50 0 0
58 100 50 0 0
59 100 50 0 0
60 100 50 0 0
61 100 50 0 0
62 100 50 0 0
63 100 50 0 0
64 100 50 0 0
65 100 50 0 0
66 100 50 0 0
67 100 50 0 0
68 100 50 0 0
69 100 50 0 0
70 100 50 0 0
71 100 50 0 0
72 100 50 0 0
73 100 50 0 0
74 100 50 0 0
75 100 50 0 0
76 100 50 0 0
77 100 50 0 0
78 100 50 0 0
79 100 50 0 0
80 100 50 0 0
81 100 50 0 0
82 100 50 0 0
83 100 50 0 0
84 100 50 0 0
85 100 50 0 0
86 100 50 0 0
87 100 50 0 0
88 100 50 0 0
89 100 50 0 0
90 100 50 0 0
91 100 50 0 0
92 100 50 0 0
93 100 50 0 0
94 100 50 0 0
95 100 50 0 0
96 100 50 0 0
97 100 50 0 0
98 100 50 0 0
99 100 50 0 0
100 100 50 0 0

BondBond Coeffs

1 3.3872 1.53 1.101
2 5.3316 1.101 1.101
3 0 1.53 1.53
4 3.3872 1.53 1.101
5 3.3872 1.53 1.101
6 5.3316 1.101 1.101
7 11.432 1.53 1.42
8 3.3872 1.53 1.101
9 23.198 1.101 1.42
10 5.3316 1.101 1.101
11 -7.1131 1.42 1.42
12 11.432 1.53 1.42
13 3.3872 1.53 1.101
14 -7.1131 1.42 1.42
15 23.198 1.101 1.42
16 5.3316 1.101 1.101
17 0.0 1.0 1.0
18 0.0 1.0 1.0
19 0.0 1.0 1.0
20 0.0 1.0 1.0
21 0.0 1.0 1.0
22 0.0 1.0 1.0
23 0.0 1.0 1.0
24 0.0 1.0 1.0
25 0.0 1.0 1.0
26 0.0 1.0 1.0
27 0.0 1.0 1.0
28 0.0 1.0 1.0
29 0.0 1.0 1.0
30 0.0 1.0 1.0
31 0.0 1.0 1.0
32 0.0 1.0 1.0
33 0.0 1.0 1.0
34 0.0 1.0 1.0
35 0.0 1.0 1.0
36 0.0 1.0 1.0
37 0.0 1.0 1.0
38 0.0 1.0 1.0
39 0.0 1.0 1.0
40 0.0 1.0 1.0
41 0.0 1.0 1.0
42 0.0 1.0 1.0
43 0.0 1.0 1.0
44 0.0 1.0 1.0
45 0.0 1.0 1.0
46 0.0 1.0 1.0
47 0.0 1.0 1.0
48 0.0 1.0 1.0
49 0.0 1.0 1.0
50 0.0 1.0 1.0
51 0.0 1.0 1.0
52 0.0 1.0 1.0
53 0.0 1.0 1.0
54 0.0 1.0 1.0
55 0.0 1.0 1.0
56 0.0 1.0 1.0
57 0.0 1.0 1.0
58 0.0 1.0 1.0
59 0.0 1.0 1.0
60 0.0 1.0 1.0
61 0.0 1.0 1.0
62 0.0 1.0 1.0
63 0.0 1.0 1.0
64 0.0 1.0 1.0
65 0.0 1.0 1.0
66 0.0 1.0 1.0
67 0.0 1.0 1.0
68 0.0 1.0 1.0
69 0.0 1.0 1.0
70 0.0 1.0 1.0
71 0.0 1.0 1.0
72 0.0 1.0 1.0
73 0.0 1.0 1.0
74 0.0 1.0 1.0
75 0.0 1.0 1.0
76 0.0 1.0 1.0
77 0.0 1.0 1.0
78 0.0 1.0 1.0
79 0.0 1.0 1.0
80 0.0 1.0 1.0
81 0.0 1.0 1.0
82 0.0 1.0 1.0
83 0.0 1.0 1.0
84 0.0 1.0 1.0
85 0.0 1.0 1.0
86 0.0 1.0 1.0
87 0.0 1.0 1.0
88 0.0 1.0 1.0
89 0.0 1.0 1.0
90 0.0 1.0 1.0
91 0.0 1.0 1.0
92 0.0 1.0 1.0
93 0.0 1.0 1.0
94 0.0 1.0 1.0
95 0.0 1.0 1.0
96 0.0 1.0 1.0
97 0.0 1.0 1.0
98 0.0 1.0 1.0
99 0.0 1.0 1.0
100 0.0 1.0 1.0

BondAngle Coeffs

1 20.754 11.421 1.53 1.101
2 18.103 18.103 1.101 1.101
3 8.016 8.016 1.53 1.53
4 20.754 11.421 1.53 1.101
5 20.754 11.421 1.53 1.101
6 18.103 18.103 1.101 1.101
7 2.6868 20.403 1.53 1.42
8 20.754 11.421 1.53 1.101
9 4.6189 55.327 1.101 1.42
10 18.103 18.103 1.101 1.101
11 -2.8112 -2.8112 1.42 1.42
12 2.6868 20.403 1.53 1.42
13 20.754 11.421 1.53 1.101
14 -2.8112 -2.8112 1.42 1.42
15 4.6189 55.327 1.101 1.42
16 18.103 18.103 1.101 1.101
17 0.0 0.0 1.0 1.0
18 0.0 0.0 1.0 1.0
19 0.0 0.0 1.0 1.0
20 0.0 0.0 1.0 1.0
21 0.0 0.0 1.0 1.0
22 0.0 0.0 1.0 1.0
23 0.0 0.0 1.0 1.0
24 0.0 0.0 1.0 1.0
25 0.0 0.0 1.0 1.0
26 0.0 0.0 1.0 1.0
27 0.0 0.0 1.0 1.0
28 0.0 0.0 1.0 1.0
29 0.0 0.0 1.0 1.0
30 0.0 0.0 1.0 1.0
31 0.0 0.0 1.0 1.0
32 0.0 0.0 1.0 1.0
33 0.0 0.0 1.0 1.0
34 0.0 0.0 1.0 1.0
35 0.0 0.0 1.0 1.0
36 0.0 0.0 1.0 1.0
37 0.0 0.0 1.0 1.0
38 0.0 0.0 1.0 1.0
39 0.0 0.0 1.0 1.0
40 0.0 0.0 1.0 1.0
41 0.0 0.0 1.0 1.0
42 0.0 0.0 1.0 1.0
43 0.0 0.0 1.0 1.0
44 0.0 0.0 1.0 1.0
45 0.0 0.0 1.0 1.0
46 0.0 0.0 1.0 1.0
47 0.0 0.0 1.0 1.0
48 0.0 0.0 1.0 1.0
49 0.0 0.0 1.0 1.0
50 0.0 0.0 1.0 1.0
51 0.0 0.0 1.0 1.0
52 0.0 0.0 1.0 1.0
53 0.0 0.0 1.0 1.0
54 0.0 0.0 1.0 1.0
55 0.0 0.0 1.0 1.0
56 0.0 0.0 1.0 1.0
57 0.0 0.0 1.0 1.0
58 0.0 0.0 1.0 1.0
59 0.0 0.0 1.0 1.0
60 0.0 0.0 1.0 1.0
61 0.0 0.0 1.0 1.0
62 0.0 0.0 1.0 1.0
63 0.0 0.0 1.0 1.0
64 0.0 0.0 1.0 1.0
65 0.0 0.0 1.0 1.0
66 0.0 0.0 1.0 1.0
67 0.0 0.0 1.0 1.0
68 0.0 0.0 1.0 1.0
69 0.0 0.0 1.0 1.0
70 0.0 0.0 1.0 1.0
71 0.0 0.0 1.0 1.0
72 0.0 0.0 1.0 1.0
73 0.0 0.0 1.0 1.0
74 0.0 0.0 1.0 1.0
75 0.0 0.0 1.0 1.0
76 0.0 0.0 1.0 1.0
77 0.0 0.0 1.0 1.0
78 0.0 0.0 1.0 1.0
79 0.0 0.0 1.0 1.0
80 0.0 0.0 1.0 1.0
81 0.0 0.0 1.0 1.0
82 0.0 0.0 1.0 1.0
83 0.0 0.0 1.0 1.0
84 0.0 0.0 1.0 1.0
85 0.0 0.0 1.0 1.0
86 0.0 0.0 1.0 1.0
87 0.0 0.0 1.0 1.0
88 0.0 0.0 1.0 1.0
89 0.0 0.0 1.0 1.0
90 0.0 0.0 1.0 1.0
91 0.0 0.0 1.0 1.0
92 0.0 0.0 1.0 1.0
93 0.0 0.0 1.0 1.0
94 0.0 0.0 1.0 1.0
95 0.0 0.0 1.0 1.0
96 0.0 0.0 1.0 1.0
97 0.0 0.0 1.0 1.0
98 0.0 0.0 1.0 1.0
99 0.0 0.0 1.0 1.0
100 0.0 0.0 1.0 1.0

Dihedral Coeffs # class2

1 0 0 0.0316 0 -0.1681 0
2 -0.1432 0 0.0617 0 -0.1083 0
3 0.7137 0 0.266 0 -0.2545 0
4 0 0 0.0316 0 -0.1681 0
5 -0.1435 0 0.253 0 -0.0905 0
6 -0.1432 0 0.0617 0 -0.1083 0
7 -0.5203 0 -0.3028 0 -0.345 0
8 0.5302 0 0 0 -0.3966 0
9 -0.5203 0 -0.3028 0 -0.345 0
10 -0.182 0 -0.1084 0 -0.7047 0
11 -0.1435 0 0.253 0 -0.0905 0
12 -0.1432 0 0.0617 0 -0.1083 0
13 -0.5203 0 -0.3028 0 -0.345 0
14 0.5302 0 0 0 -0.3966 0
15 0.5302 0 0 0 -0.3966 0
16 0.0 0.0 0.0 0.0 0.0 0.0
17 0.0 0.0 0.0 0.0 0.0 0.0
18 0.0 0.0 0.0 0.0 0.0 0.0
19 0.0 0.0 0.0 0.0 0.0 0.0
20 0.0 0.0 0.0 0.0 0.0 0.0
21 0.0 0.0 0.0 0.0 0.0 0.0
22 0.0 0.0 0.0 0.0 0.0 0.0
23 0.0 0.0 0.0 0.0 0.0 0.0
24 0.0 0.0 0.0 0.0 0.0 0.0
25 0.0 0.0 0.0 0.0 0.0 0.0
26 0.0 0.0 0.0 0.0 0.0 0.0
27 0.0 0.0 0.0 0.0 0.0 0.0
28 0.0 0.0 0.0 0.0 0.0 0.0
29 0.0 0.0 0.0 0.0 0.0 0.0
30 0.0 0.0 0.0 0.0 0.0 0.0
31 0.0 0.0 0.0 0.0 0.0 0.0
32 0.0 0.0 0.0 0.0 0.0 0.0
33 0.0 0.0 0.0 0.0 0.0 0.0
34 0.0 0.0 0.0 0.0 0.0 0.0
35 0.0 0.0 0.0 0.0 0.0 0.0
36 0.0 0.0 0.0 0.0 0.0 0.0
37 0.0 0.0 0.0 0.0 0.0 0.0
38 0.0 0.0 0.0 0.0 0.0 0.0
39 0.0 0.0 0.0 0.0 0.0 0.0
40 0.0 0.0 0.0 0.0 0.0 0.0
41 0.0 0.0 0.0 0.0 0.0 0.0
42 0.0 0.0 0.0 0.0 0.0 0.0
43 0.0 0.0 0.0 0.0 0.0 0.0
44 0.0 0.0 0.0 0.0 0.0 0.0
45 0.0 0.0 0.0 0.0 0.0 0.0
46 0.0 0.0 0.0 0.0 0.0 0.0
47 0.0 0.0 0.0 0.0 0.0 0.0
48 0.0 0.0 0.0 0.0 0.0 0.0
49 0.0 0.0 0.0 0.0 0.0 0.0
50 0.0 0.0 0.0 0.0 0.0 0.0
51 0.0 0.0 0.0 0.0 0.0 0.0
52 0.0 0.0 0.0 0.0 0.0 0.0
53 0.0 0.0 0.0 0.0 0.0 0.0
54 0.0 0.0 0.0 0.0 0.0 0.0
55 0.0 0.0 0.0 0.0 0.0 0.0
56 0.0 0.0 0.0 0.0 0.0 0.0
57 0.0 0.0 0.0 0.0 0.0 0.0
58 0.0 0.0 0.0 0.0 0.0 0.0
59 0.0 0.0 0.0 0.0 0.0 0.0
60 0.0 0.0 0.0 0.0 0.0 0.0
61 0.0 0.0 0.0 0.0 0.0 0.0
62 0.0 0.0 0.0 0.0 0.0 0.0
63 0.0 0.0 0.0 0.0 0.0 0.0
64 0.0 0.0 0.0 0.0 0.0 0.0
65 0.0 0.0 0.0 0.0 0.0 0.0
66 0.0 0.0 0.0 0.0 0.0 0.0
67 0.0 0.0 0.0 0.0 0.0 0.0
68 0.0 0.0 0.0 0.0 0.0 0.0
69 0.0 0.0 0.0 0.0 0.0 0.0
70 0.0 0.0 0.0 0.0 0.0 0.0
71 0.0 0.0 0.0 0.0 0.0 0.0
72 0.0 0.0 0.0 0.0 0.0 0.0
73 0.0 0.0 0.0 0.0 0.0 0.0
74 0.0 0.0 0.0 0.0 0.0 0.0
75 0.0 0.0 0.0 0.0 0.0 0.0
76 0.0 0.0 0.0 0.0 0.0 0.0
77 0.0 0.0 0.0 0.0 0.0 0.0
78 0.0 0.0 0.0 0.0 0.0 0.0
79 0.0 0.0 0.0 0.0 0.0 0.0
80 0.0 0.0 0.0 0.0 0.0 0.0
81 0.0 0.0 0.0 0.0 0.0 0.0
82 0.0 0.0 0.0 0.0 0.0 0.0
83 0.0 0.0 0.0 0.0 0.0 0.0
84 0.0 0.0 0.0 0.0 0.0 0.0
85 0.0 0.0 0.0 0.0 0.0 0.0
86 0.0 0.0 0.0 0.0 0.0 0.0
87 0.0 0.0 0.0 0.0 0.0 0.0
88 0.0 0.0 0.0 0.0 0.0 0.0
89 0.0 0.0 0.0 0.0 0.0 0.0
90 0.0 0.0 0.0 0.0 0.0 0.0
91 0.0 0.0 0.0 0.0 0.0 0.0
92 0.0 0.0 0.0 0.0 0.0 0.0
93 0.0 0.0 0.0 0.0 0.0 0.0
94 0.0 0.0 0.0 0.0 0.0 0.0
95 0.0 0.0 0.0 0.0 0.0 0.0
96 0.0 0.0 0.0 0.0 0.0 0.0
97 0.0 0.0 0.0 0.0 0.0 0.0
98 0.0 0.0 0.0 0.0 0.0 0.0
99 0.0 0.0 0.0 0.0 0.0 0.0
100 0.0 0.0 0.0 0.0 0.0 0.0

AngleAngleTorsion Coeffs

1 -16.164 112.67 110.77
2 -12.564 110.77 110.77
3 -29.042 112.67 111.27
4 -16.164 112.67 110.77
5 -20.201 110.77 111.27
6 -12.564 110.77 110.77
7 -19.006 111.27 104.5
8 -16.444 108.73 104.5
9 -19.006 111.27 104.5
10 -14.048 111.27 111.27
11 -20.201 110.77 111.27
12 -12.564 110.77 110.77
13 -19.006 111.27 104.5
14 -16.444 108.73 104.5
15 -16.444 108.73 104.5
16 0.0 100.0 100.0
17 0.0 100.0 100.0
18 0.0 100.0 100.0
19 0.0 100.0 100.0
20 0.0 100.0 100.0
21 0.0 100.0 100.0
22 0.0 100.0 100.0
23 0.0 100.0 100.0
24 0.0 100.0 100.0
25 0.0 100.0 100.0
26 0.0 100.0 100.0
27 0.0 100.0 100.0
28 0.0 100.0 100.0
29 0.0 100.0 100.0
30 0.0 100.0 100.0
31 0.0 100.0 100.0
32 0.0 100.0 100.0
33 0.0 100.0 100.0
34 0.0 100.0 100.0
35 0.0 100.0 100.0
36 0.0 100.0 100.0
37 0.0 100.0 100.0
38 0.0 100.0 100.0
39 0.0 100.0 100.0
40 0.0 100.0 100.0
41 0.0 100.0 100.0
42 0.0 100.0 100.0
43 0.0 100.0 100.0
44 0.0 100.0 100.0
45 0.0 100.0 100.0
46 0.0 100.0 100.0
47 0.0 100.0 100.0
48 0.0 100.0 100.0
49 0.0 100.0 100.0
50 0.0 100.0 100.0
51 0.0 100.0 100.0
52 0.0 100.0 100.0
53 0.0 100.0 100.0
54 0.0 100.0 100.0
55 0.0 100.0 100.0
56 0.0 100.0 100.0
57 0.0 100.0 100.0
58 0.0 100.0 100.0
59 0.0 100.0 100.0
60 0.0 100.0 100.0
61 0.0 100.0 100.0
62 0.0 100.0 100.0
63 0.0 100.0 100.0
64 0.0 100.0 100.0
65 0.0 100.0 100.0
66 0.0 100.0 100.0
67 0.0 100.0 100.0
68 0.0 100.0 100.0
69 0.0 100.0 100.0
70 0.0 100.0 100.0
71 0.0 100.0 100.0
72 0.0 100.0 100.0
73 0.0 100.0 100.0
74 0.0 100.0 100.0
75 0.0 100.0 100.0
76 0.0 100.0 100.0
77 0.0 100.0 100.0
78 0.0 100.0 100.0
79 0.0 100.0 100.0
80 0.0 100.0 100.0
81 0.0 100.0 100.0
82 0.0 100.0 100.0
83 0.0 100.0 100.0
84 0.0 100.0 100.0
85 0.0 100.0 100.0
86 0.0 100.0 100.0
87 0.0 100.0 100.0
88 0.0 100.0 100.0
89 0.0 100.0 100.0
90 0.0 100.0 100.0
91 0.0 100.0 100.0
92 0.0 100.0 100.0
93 0.0 100.0 100.0
94 0.0 100.0 100.0
95 0.0 100.0 100.0
96 0.0 100.0 100.0
97 0.0 100.0 100.0
98 0.0 100.0 100.0
99 0.0 100.0 100.0
100 0.0 100.0 100.0

EndBondTorsion Coeffs

1 0.2486 0.2422 -0.0925 0.0814 0.0591 0.2219 1.53 1.101
2 0.213 0.312 0.0777 0.213 0.312 0.0777 1.101 1.101
3 -0.319 0.4411 -0.7174 1.1538 0.8409 -0.9138 1.53 1.42
4 0.2486 0.2422 -0.0925 0.0814 0.0591 0.2219 1.53 1.101
5 0.9681 0.9551 0.0436 0.5903 0.6669 0.8584 1.101 1.42
6 0.213 0.312 0.0777 0.213 0.312 0.0777 1.101 1.101
7 -0.2456 1.0517 -0.7795 0.4741 1.2635 0.5576 1.53 1.42
8 -0.6054 1.3339 0.9648 -0.162 0.1564 -1.1408 1.101 1.42
9 -0.2456 1.0517 -0.7795 0.4741 1.2635 0.5576 1.53 1.42
10 1.0165 0.7553 -0.4609 1.0165 0.7553 -0.4609 1.42 1.42
11 0.9681 0.9551 0.0436 0.5903 0.6669 0.8584 1.101 1.42
12 0.213 0.312 0.0777 0.213 0.312 0.0777 1.101 1.101
13 -0.2456 1.0517 -0.7795 0.4741 1.2635 0.5576 1.53 1.42
14 -0.6054 1.3339 0.9648 -0.162 0.1564 -1.1408 1.101 1.42
15 -0.6054 1.3339 0.9648 -0.162 0.1564 -1.1408 1.101 1.42
16 0.0 0.0 0.0 0.0 0.0 0.0 1.0 1.0
17 0.0 0.0 0.0 0.0 0.0 0.0 1.0 1.0
18 0.0 0.0 0.0 0.0 0.0 0.0 1.0 1.0
19 0.0 0.0 0.0 0.0 0.0 0.0 1.0 1.0
20 0.0 0.0 0.0 0.0 0.0 0.0 1.0 1.0
21 0.0 0.0 0.0 0.0 0.0 0.0 1.0 1.0
22 0.0 0.0 0.0 0.0 0.0 0.0 1.0 1.0
23 0.0 0.0 0.0 0.0 0.0 0.0 1.0 1.0
24 0.0 0.0 0.0 0.0 0.0 0.0 1.0 1.0
25 0.0 0.0 0.0 0.0 0.0 0.0 1.0 1.0
26 0.0 0.0 0.0 0.0 0.0 0.0 1.0 1.0
27 0.0 0.0 0.0 0.0 0.0 0.0 1.0 1.0
28 0.0 0.0 0.0 0.0 0.0 0.0 1.0 1.0
29 0.0 0.0 0.0 0.0 0.0 0.0 1.0 1.0
30 0.0 0.0 0.0 0.0 0.0 0.0 1.0 1.0
31 0.0 0.0 0.0 0.0 0.0 0.0 1.0 1.0
32 0.0 0.0 0.0 0.0 0.0 0.0 1.0 1.0
33 0.0 0.0 0.0 0.0 0.0 0.0 1.0 1.0
34 0.0 0.0 0.0 0.0 0.0 0.0 1.0 1.0
35 0.0 0.0 0.0 0.0 0.0 0.0 1.0 1.0
36 0.0 0.0 0.0 0.0 0.0 0.0 1.0 1.0
37 0.0 0.0 0.0 0.0 0.0 0.0 1.0 1.0
38 0.0 0.0 0.0 0.0 0.0 0.0 1.0 1.0
39 0.0 0.0 0.0 0.0 0.0 0.0 1.0 1.0
40 0.0 0.0 0.0 0.0 0.0 0.0 1.0 1.0
41 0.0 0.0 0.0 0.0 0.0 0.0 1.0 1.0
42 0.0 0.0 0.0 0.0 0.0 0.0 1.0 1.0
43 0.0 0.0 0.0 0.0 0.0 0.0 1.0 1.0
44 0.0 0.0 0.0 0.0 0.0 0.0 1.0 1.0
45 0.0 0.0 0.0 0.0 0.0 0.0 1.0 1.0
46 0.0 0.0 0.0 0.0 0.0 0.0 1.0 1.0
47 0.0 0.0 0.0 0.0 0.0 0.0 1.0 1.0
48 0.0 0.0 0.0 0.0 0.0 0.0 1.0 1.0
49 0.0 0.0 0.0 0.0 0.0 0.0 1.0 1.0
50 0.0 0.0 0.0 0.0 0.0 0.0 1.0 1.0
51 0.0 0.0 0.0 0.0 0.0 0.0 1.0 1.0
52 0.0 0.0 0.0 0.0 0.0 0.0 1.0 1.0
53 0.0 0.0 0.0 0.0 0.0 0.0 1.0 1.0
54 0.0 0.0 0.0 0.0 0.0 0.0 1.0 1.0
55 0.0 0.0 0.0 0.0 0.0 0.0 1.0 1.0
56 0.0 0.0 0.0 0.0 0.0 0.0 1.0 1.0
57 0.0 0.0 0.0 0.0 0.0 0.0 1.0 1.0
58 0.0 0.0 0.0 0.0 0.0 0.0 1.0 1.0
59 0.0 0.0 0.0 0.0 0.0 0.0 1.0 1.0
60 0.0 0.0 0.0 0.0 0.0 0.0 1.0 1.0
61 0.0 0.0 0.0 0.0 0.0 0.0 1.0 1.0
62 0.0 0.0 0.0 0.0 0.0 0.0 1.0 1.0
63 0.0 0.0 0.0 0.0 0.0 0.0 1.0 1.0
64 0.0 0.0 0.0 0.0 0.0 0.0 1.0 1.0
65 0.0 0.0 0.0 0.0 0.0 0.0 1.0 1.0
66 0.0 0.0 0.0 0.0 0.0 0.0 1.0 1.0
67 0.0 0.0 0.0 0.0 0.0 0.0 1.0 1.0
68 0.0 0.0 0.0 0.0 0.0 0.0 1.0 1.0
69 0.0 0.0 0.0 0.0 0.0 0.0 1.0 1.0
70 0.0 0.0 0.0 0.0 0.0 0.0 1.0 1.0
71 0.0 0.0 0.0 0.0 0.0 0.0 1.0 1.0
72 0.0 0.0 0.0 0.0 0.0 0.0 1.0 1.0
73 0.0 0.0 0.0 0.0 0.0 0.0 1.0 1.0
74 0.0 0.0 0.0 0.0 0.0 0.0 1.0 1.0
75 0.0 0.0 0.0 0.0 0.0 0.0 1.0 1.0
76 0.0 0.0 0.0 0.0 0.0 0.0 1.0 1.0
77 0.0 0.0 0.0 0.0 0.0 0.0 1.0 1.0
78 0.0 0.0 0.0 0.0 0.0 0.0 1.0 1.0
79 0.0 0.0 0.0 0.0 0.0 0.0 1.0 1.0
80 0.0 0.0 0.0 0.0 0.0 0.0 1.0 1.0
81 0.0 0.0 0.0 0.0 0.0 0.0 1.0 1.0
82 0.0 0.0 0.0 0.0 0.0 0.0 1.0 1.0
83 0.0 0.0 0.0 0.0 0.0 0.0 1.0 1.0
84 0.0 0.0 0.0 0.0 0.0 0.0 1.0 1.0
85 0.0 0.0 0.0 0.0 0.0 0.0 1.0 1.0
86 0.0 0.0 0.0 0.0 0.0 0.0 1.0 1.0
87 0.0 0.0 0.0 0.0 0.0 0.0 1.0 1.0
88 0.0 0.0 0.0 0.0 0.0 0.0 1.0 1.0
89 0.0 0.0 0.0 0.0 0.0 0.0 1.0 1.0
90 0.0 0.0 0.0 0.0 0.0 0.0 1.0 1.0
91 0.0 0.0 0.0 0.0 0.0 0.0 1.0 1.0
92 0.0 0.0 0.0 0.0 0.0 0.0 1.0 1.0
93 0.0 0.0 0.0 0.0 0.0 0.0 1.0 1.0
94 0.0 0.0 0.0 0.0 0.0 0.0 1.0 1.0
95 0.0 0.0 0.0 0.0 0.0 0.0 1.0 1.0
96 0.0 0.0 0.0 0.0 0.0 0.0 1.0 1.0
97 0.0 0.0 0.0 0.0 0.0 0.0 1.0 1.0
98 0.0 0.0 0.0 0.0 0.0 0.0 1.0 1.0
99 0.0 0.0 0.0 0.0 0.0 0.0 1.0 1.0
100 0.0 0.0 0.0 0.0 0.0 0.0 1.0 1.0

MiddleBondTorsion Coeffs

1 -14.879 -3.6581 -0.3138 1.53
2 -14.261 -0.5322 -0.4864 1.53
3 -21.884 -7.6764 -0.6868 1.53
4 -14.879 -3.6581 -0.3138 1.53
5 -16.797 -1.2296 -0.275 1.53
6 -14.261 -0.5322 -0.4864 1.53
7 -5.9288 -2.7007 -0.3175 1.42
8 -6.8007 -4.6546 -1.4101 1.42
9 -5.9288 -2.7007 -0.3175 1.42
10 -17.259 -3.6157 -0.8364 1.53
11 -16.797 -1.2296 -0.275 1.53
12 -14.261 -0.5322 -0.4864 1.53
13 -5.9288 -2.7007 -0.3175 1.42
14 -6.8007 -4.6546 -1.4101 1.42
15 -6.8007 -4.6546 -1.4101 1.42
16 0.0 0.0 0.0 1.0
17 0.0 0.0 0.0 1.0
18 0.0 0.0 0.0 1.0
19 0.0 0.0 0.0 1.0
20 0.0 0.0 0.0 1.0
21 0.0 0.0 0.0 1.0
22 0.0 0.0 0.0 1.0
23 0.0 0.0 0.0 1.0
24 0.0 0.0 0.0 1.0
25 0.0 0.0 0.0 1.0
26 0.0 0.0 0.0 1.0
27 0.0 0.0 0.0 1.0
28 0.0 0.0 0.0 1.0
29 0.0 0.0 0.0 1.0
30 0.0 0.0 0.0 1.0
31 0.0 0.0 0.0 1.0
32 0.0 0.0 0.0 1.0
33 0.0 0.0 0.0 1.0
34 0.0 0.0 0.0 1.0
35 0.0 0.0 0.0 1.0
36 0.0 0.0 0.0 1.0
37 0.0 0.0 0.0 1.0
38 0.0 0.0 0.0 1.0
39 0.0 0.0 0.0 1.0
40 0.0 0.0 0.0 1.0
41 0.0 0.0 0.0 1.0
42 0.0 0.0 0.0 1.0
43 0.0 0.0 0.0 1.0
44 0.0 0.0 0.0 1.0
45 0.0 0.0 0.0 1.0
46 0.0 0.0 0.0 1.0
47 0.0 0.0 0.0 1.0
48 0.0 0.0 0.0 1.0
49 0.0 0.0 0.0 1.0
50 0.0 0.0 0.0 1.0
51 0.0 0.0 0.0 1.0
52 0.0 0.0 0.0 1.0
53 0.0 0.0 0.0 1.0
54 0.0 0.0 0.0 1.0
55 0.0 0.0 0.0 1.0
56 0.0 0.0 0.0 1.0
57 0.0 0.0 0.0 1.0
58 0.0 0.0 0.0 1.0
59 0.0 0.0 0.0 1.0
60 0.0 0.0 0.0 1.0
61 0.0 0.0 0.0 1.0
62 0.0 0.0 0.0 1.0
63 0.0 0.0 0.0 1.0
64 0.0 0.0 0.0 1.0
65 0.0 0.0 0.0 1.0
66 0.0 0.0 0.0 1.0
67 0.0 0.0 0.0 1.0
68 0.0 0.0 0.0 1.0
69 0.0 0.0 0.0 1.0
70 0.0 0.0 0.0 1.0
71 0.0 0.0 0.0 1.0
72 0.0 0.0 0.0 1.0
73 0.0 0.0 0.0 1.0
74 0.0 0.0 0.0 1.0
75 0.0 0.0 0.0 1.0
76 0.0 0.0 0.0 1.0
77 0.0 0.0 0.0 1.0
78 0.0 0.0 0.0 1.0
79 0.0 0.0 0.0 1.0
80 0.0 0.0 0.0 1.0
81 0.0 0.0 0.0 1.0
82 0.0 0.0 0.0 1.0
83 0.0 0.0 0.0 1.0
84 0.0 0.0 0.0 1.0
85 0.0 0.0 0.0 1.0
86 0.0 0.0 0.0 1.0
87 0.0 0.0 0.0 1.0
88 0.0 0.0 0.0 1.0
89 0.0 0.0 0.0 1.0
90 0.0 0.0 0.0 1.0
91 0.0 0.0 0.0 1.0
92 0.0 0.0 0.0 1.0
93 0.0 0.0 0.0 1.0
94 0.0 0.0 0.0 1.0
95 0.0 0.0 0.0 1.0
96 0.0 0.0 0.0 1.0
97 0.0 0.0 0.0 1.0
98 0.0 0.0 0.0 1.0
99 0.0 0.0 0.0 1.0
100 0.0 0.0 0.0 1.0

BondBond13 Coeffs

1 0 1.53 1.101
2 0 1.101 1.101
3 0 1.53 1.42
4 0 1.53 1.101
5 0 1.101 1.42
6 0 1.101 1.101
7 0 1.53 1.42
8 0 1.101 1.42
9 0 1.53 1.42
10 0 1.42 1.42
11 0 1.101 1.42
12 0 1.101 1.101
13 0 1.53 1.42
14 0 1.101 1.42
15 0 1.101 1.42
16 0.0 1.0 1.0
17 0.0 1.0 1.0
18 0.0 1.0 1.0
19 0.0 1.0 1.0
20 0.0 1.0 1.0
21 0.0 1.0 1.0
22 0.0 1.0 1.0
23 0.0 1.0 1.0
24 0.0 1.0 1.0
25 0.0 1.0 1.0
26 0.0 1.0 1.0
27 0.0 1.0 1.0
28 0.0 1.0 1.0
29 0.0 1.0 1.0
30 0.0 1.0 1.0
31 0.0 1.0 1.0
32 0.0 1.0 1.0
33 0.0 1.0 1.0
34 0.0 1.0 1.0
35 0.0 1.0 1.0
36 0.0 1.0 1.0
37 0.0 1.0 1.0
38 0.0 1.0 1.0
39 0.0 1.0 1.0
40 0.0 1.0 1.0
41 0.0 1.0 1.0
42 0.0 1.0 1.0
43 0.0 1.0 1.0
44 0.0 1.0 1.0
45 0.0 1.0 1.0
46 0.0 1.0 1.0
47 0.0 1.0 1.0
48 0.0 1.0 1.0
49 0.0 1.0 1.0
50 0.0 1.0 1.0
51 0.0 1.0 1.0
52 0.0 1.0 1.0
53 0.0 1.0 1.0
54 0.0 1.0 1.0
55 0.0 1.0 1.0
56 0.0 1.0 1.0
57 0.0 1.0 1.0
58 0.0 1.0 1.0
59 0.0 1.0 1.0
60 0.0 1.0 1.0
61 0.0 1.0 1.0
62 0.0 1.0 1.0
63 0.0 1.0 1.0
64 0.0 1.0 1.0
65 0.0 1.0 1.0
66 0.0 1.0 1.0
67 0.0 1.0 1.0
68 0.0 1.0 1.0
69 0.0 1.0 1.0
70 0.0 1.0 1.0
71 0.0 1.0 1.0
72 0.0 1.0 1.0
73 0.0 1.0 1.0
74 0.0 1.0 1.0
75 0.0 1.0 1.0
76 0.0 1.0 1.0
77 0.0 1.0 1.0
78 0.0 1.0 1.0
79 0.0 1.0 1.0
80 0.0 1.0 1.0
81 0.0 1.0 1.0
82 0.0 1.0 1.0
83 0.0 1.0 1.0
84 0.0 1.0 1.0
85 0.0 1.0 1.0
86 0.0 1.0 1.0
87 0.0 1.0 1.0
88 0.0 1.0 1.0
89 0.0 1.0 1.0
90 0.0 1.0 1.0
91 0.0 1.0 1.0
92 0.0 1.0 1.0
93 0.0 1.0 1.0
94 0.0 1.0 1.0
95 0.0 1.0 1.0
96 0.0 1.0 1.0
97 0.0 1.0 1.0
98 0.0 1.0 1.0
99 0.0 1.0 1.0
100 0.0 1.0 1.0

AngleTorsion Coeffs

1 -0.2454 0 -0.1136 0.3113 0.4516 -0.1988 112.67 110.77
2 -0.8085 0.5569 -0.2466 -0.8085 0.5569 -0.2466 110.77 110.77
3 0.5623 -0.3041 -0.4015 0.9672 -0.7566 -1.2331 112.67 111.27
4 -0.2454 0 -0.1136 0.3113 0.4516 -0.1988 112.67 110.77
5 2.3668 2.492 -1.0122 -0.1892 0.4918 0.7273 110.77 111.27
6 -0.8085 0.5569 -0.2466 -0.8085 0.5569 -0.2466 110.77 110.77
7 -2.7466 1.4877 -0.8955 0.5676 0.945 0.0703 111.27 104.5
8 -1.8234 1.6393 0.5144 -0.7777 0.434 -0.6653 108.73 104.5
9 -2.7466 1.4877 -0.8955 0.5676 0.945 0.0703 111.27 104.5
10 0.5511 0.9737 -0.6673 0.5511 0.9737 -0.6673 111.27 111.27
11 2.3668 2.492 -1.0122 -0.1892 0.4918 0.7273 110.77 111.27
12 -0.8085 0.5569 -0.2466 -0.8085 0.5569 -0.2466 110.77 110.77
13 -2.7466 1.4877 -0.8955 0.5676 0.945 0.0703 111.27 104.5
14 -1.8234 1.6393 0.5144 -0.7777 0.434 -0.6653 108.73 104.5
15 -1.8234 1.6393 0.5144 -0.7777 0.434 -0.6653 108.73 104.5
16 0.0 0.0 0.0 0.0 0.0 0.0 100.0 100.0
17 0.0 0.0 0.0 0.0 0.0 0.0 100.0 100.0
18 0.0 0.0 0.0 0.0 0.0 0.0 100.0 100.0
19 0.0 0.0 0.0 0.0 0.0 0.0 100.0 100.0
20 0.0 0.0 0.0 0.0 0.0 0.0 100.0 100.0
21 0.0 0.0 0.0 0.0 0.0 0.0 100.0 100.0
22 0.0 0.0 0.0 0.0 0.0 0.0 100.0 100.0
23 0.0 0.0 0.0 0.0 0.0 0.0 100.0 100.0
24 0.0 0.0 0.0 0.0 0.0 0.0 100.0 100.0
25 0.0 0.0 0.0 0.0 0.0 0.0 100.0 100.0
26 0.0 0.0 0.0 0.0 0.0 0.0 100.0 100.0
27 0.0 0.0 0.0 0.0 0.0 0.0 100.0 100.0
28 0.0 0.0 0.0 0.0 0.0 0.0 100.0 100.0
29 0.0 0.0 0.0 0.0 0.0 0.0 100.0 100.0
30 0.0 0.0 0.0 0.0 0.0 0.0 100.0 100.0
31 0.0 0.0 0.0 0.0 0.0 0.0 100.0 100.0
32 0.0 0.0 0.0 0.0 0.0 0.0 100.0 100.0
33 0.0 0.0 0.0 0.0 0.0 0.0 100.0 100.0
34 0.0 0.0 0.0 0.0 0.0 0.0 100.0 100.0
35 0.0 0.0 0.0 0.0 0.0 0.0 100.0 100.0
36 0.0 0.0 0.0 0.0 0.0 0.0 100.0 100.0
37 0.0 0.0 0.0 0.0 0.0 0.0 100.0 100.0
38 0.0 0.0 0.0 0.0 0.0 0.0 100.0 100.0
39 0.0 0.0 0.0 0.0 0.0 0.0 100.0 100.0
40 0.0 0.0 0.0 0.0 0.0 0.0 100.0 100.0
41 0.0 0.0 0.0 0.0 0.0 0.0 100.0 100.0
42 0.0 0.0 0.0 0.0 0.0 0.0 100.0 100.0
43 0.0 0.0 0.0 0.0 0.0 0.0 100.0 100.0
44 0.0 0.0 0.0 0.0 0.0 0.0 100.0 100.0
45 0.0 0.0 0.0 0.0 0.0 0.0 100.0 100.0
46 0.0 0.0 0.0 0.0 0.0 0.0 100.0 100.0
47 0.0 0.0 0.0 0.0 0.0 0.0 100.0 100.0
48 0.0 0.0 0.0 0.0 0.0 0.0 100.0 100.0
49 0.0 0.0 0.0 0.0 0.0 0.0 100.0 100.0
50 0.0 0.0 0.0 0.0 0.0 0.0 100.0 100.0
51 0.0 0.0 0.0 0.0 0.0 0.0 100.0 100.0
52 0.0 0.0 0.0 0.0 0.0 0.0 100.0 100.0
53 0.0 0.0 0.0 0.0 0.0 0.0 100.0 100.0
54 0.0 0.0 0.0 0.0 0.0 0.0 100.0 100.0
55 0.0 0.0 0.0 0.0 0.0 0.0 100.0 100.0
56 0.0 0.0 0.0 0.0 0.0 0.0 100.0 100.0
57 0.0 0.0 0.0 0.0 0.0 0.0 100.0 100.0
58 0.0 0.0 0.0 0.0 0.0 0.0 100.0 100.0
59 0.0 0.0 0.0 0.0 0.0 0.0 100.0 100.0
60 0.0 0.0 0.0 0.0 0.0 0.0 100.0 100.0
61 0.0 0.0 0.0 0.0 0.0 0.0 100.0 100.0
62 0.0 0.0 0.0 0.0 0.0 0.0 100.0 100.0
63 0.0 0.0 0.0 0.0 0.0 0.0 100.0 100.0
64 0.0 0.0 0.0 0.0 0.0 0.0 100.0 100.0
65 0.0 0.0 0.0 0.0 0.0 0.0 100.0 100.0
66 0.0 0.0 0.0 0.0 0.0 0.0 100.0 100.0
67 0.0 0.0 0.0 0.0 0.0 0.0 100.0 100.0
68 0.0 0.0 0.0 0.0 0.0 0.0 100.0 100.0
69 0.0 0.0 0.0 0.0 0.0 0.0 100.0 100.0
70 0.0 0.0 0.0 0.0 0.0 0.0 100.0 100.0
71 0.0 0.0 0.0 0.0 0.0 0.0 100.0 100.0
72 0.0 0.0 0.0 0.0 0.0 0.0 100.0 100.0
73 0.0 0.0 0.0 0.0 0.0 0.0 100.0 100.0
74 0.0 0.0 0.0 0.0 0.0 0.0 100.0 100.0
75 0.0 0.0 0.0 0.0 0.0 0.0 100.0 100.0
76 0.0 0.0 0.0 0.0 0.0 0.0 100.0 100.0
77 0.0 0.0 0.0 0.0 0.0 0.0 100.0 100.0
78 0.0 0.0 0.0 0.0 0.0 0.0 100.0 100.0
79 0.0 0.0 0.0 0.0 0.0 0.0 100.0 100.0
80 0.0 0.0 0.0 0.0 0.0 0.0 100.0 100.0
81 0.0 0.0 0.0 0.0 0.0 0.0 100.0 100.0
82 0.0 0.0 0.0 0.0 0.0 0.0 100.0 100.0
83 0.0 0.0 0.0 0.0 0.0 0.0 100.0 100.0
84 0.0 0.0 0.0 0.0 0.0 0.0 100.0 100.0
85 0.0 0.0 0.0 0.0 0.0 0.0 100.0 100.0
86 0.0 0.0 0.0 0.0 0.0 0.0 100.0 100.0
87 0.0 0.0 0.0 0.0 0.0 0.0 100.0 100.0
88 0.0 0.0 0.0 0.0 0.0 0.0 100.0 100.0
89 0.0 0.0 0.0 0.0 0.0 0.0 100.0 100.0
90 0.0 0.0 0.0 0.0 0.0 0.0 100.0 100.0
91 0.0 0.0 0.0 0.0 0.0 0.0 100.0 100.0
92 0.0 0.0 0.0 0.0 0.0 0.0 100.0 100.0
93 0.0 0.0 0.0 0.0 0.0 0.0 100.0 100.0
94 0.0 0.0 0.0 0.0 0.0 0.0 100.0 100.0
95 0.0 0.0 0.0 0.0 0.0 0.0 100.0 100.0
96 0.0 0.0 0.0 0.0 0.0 0.0 100.0 100.0
97 0.0 0.0 0.0 0.0 0.0 0.0 100.0 100.0
98 0.0 0.0 0.0 0.0 0.0 0.0 100.0 100.0
99 0.0 0.0 0.0 0.0 0.0 0.0 100.0 100.0
100 0.0 0.0 0.0 0.0 0.0 0.0 100.0 100.0

Improper Coeffs # class2

1 0 0
2 0 0
3 0 0
4 0 0
5 0 0
6 0 0
7 0 0
8 0 0
9 0 0
10 0 0
11 0 0
12 0 0
13 0.0 0.0
14 0.0 0.0
15 0.0 0.0
16 0.0 0.0
17 0.0 0.0
18 0.0 0.0
19 0.0 0.0
20 0.0 0.0
21 0.0 0.0
22 0.0 0.0
23 0.0 0.0
24 0.0 0.0
25 0.0 0.0
26 0.0 0.0
27 0.0 0.0
28 0.0 0.0
29 0.0 0.0
30 0.0 0.0
31 0.0 0.0
32 0.0 0.0
33 0.0 0.0
34 0.0 0.0
35 0.0 0.0
36 0.0 0.0
37 0.0 0.0
38 0.0 0.0
39 0.0 0.0
40 0.0 0.0
41 0.0 0.0
42 0.0 0.0
43 0.0 0.0
44 0.0 0.0
45 0.0 0.0
46 0.0 0.0
47 0.0 0.0
48 0.0 0.0
49 0.0 0.0
50 0.0 0.0
51 0.0 0.0
52 0.0 0.0
53 0.0 0.0
54 0.0 0.0
55 0.0 0.0
56 0.0 0.0
57 0.0 0.0
58 0.0 0.0
59 0.0 0.0
60 0.0 0.0
61 0.0 0.0
62 0.0 0.0
63 0.0 0.0
64 0.0 0.0
65 0.0 0.0
66 0.0 0.0
67 0.0 0.0
68 0.0 0.0
69 0.0 0.0
70 0.0 0.0
71 0.0 0.0
72 0.0 0.0
73 0.0 0.0
74 0.0 0.0
75 0.0 0.0
76 0.0 0.0
77 0.0 0.0
78 0.0 0.0
79 0.0 0.0
80 0.0 0.0
81 0.0 0.0
82 0.0 0.0
83 0.0 0.0
84 0.0 0.0
85 0.0 0.0
86 0.0 0.0
87 0.0 0.0
88 0.0 0.0
89 0.0 0.0
90 0.0 0.0
91 0.0 0.0
92 0.0 0.0
93 0.0 0.0
94 0.0 0.0
95 0.0 0.0
96 0.0 0.0
97 0.0 0.0
98 0.0 0.0
99 0.0 0.0
100 0.0 0.0

AngleAngle Coeffs

1 0.2738 -0.4825 0.2738 110.77 110.77 107.66
2 -0.3157 -0.3157 -0.3157 107.66 107.66 107.66
3 -1.3199 -1.3199 0.1184 112.67 110.77 110.77
4 0.2738 -0.4825 0.2738 110.77 110.77 107.66
5 0.2738 -0.4825 0.2738 110.77 110.77 107.66
6 3.9177 2.5926 0.1689 110.77 111.27 108.73
7 0.2738 -0.4825 0.2738 110.77 110.77 107.66
8 2.4259 2.4259 2.1283 107.66 108.73 108.73
9 3.9177 2.5926 0.1689 110.77 111.27 108.73
10 0.2738 -0.4825 0.2738 110.77 110.77 107.66
11 2.4259 2.4259 2.1283 107.66 108.73 108.73
12 -0.3157 -0.3157 -0.3157 107.66 107.66 107.66
13 0.0 0.0 0.0 100.0 100.0 100.0
14 0.0 0.0 0.0 100.0 100.0 100.0
15 0.0 0.0 0.0 100.0 100.0 100.0
16 0.0 0.0 0.0 100.0 100.0 100.0
17 0.0 0.0 0.0 100.0 100.0 100.0
18 0.0 0.0 0.0 100.0 100.0 100.0
19 0.0 0.0 0.0 100.0 100.0 100.0
20 0.0 0.0 0.0 100.0 100.0 100.0
21 0.0 0.0 0.0 100.0 100.0 100.0
22 0.0 0.0 0.0 100.0 100.0 100.0
23 0.0 0.0 0.0 100.0 100.0 100.0
24 0.0 0.0 0.0 100.0 100.0 100.0
25 0.0 0.0 0.0 100.0 100.0 100.0
26 0.0 0.0 0.0 100.0 100.0 100.0
27 0.0 0.0 0.0 100.0 100.0 100.0
28 0.0 0.0 0.0 100.0 100.0 100.0
29 0.0 0.0 0.0 100.0 100.0 100.0
30 0.0 0.0 0.0 100.0 100.0 100.0
31 0.0 0.0 0.0 100.0 100.0 100.0
32 0.0 0.0 0.0 100.0 100.0 100.0
33 0.0 0.0 0.0 100.0 100.0 100.0
34 0.0 0.0 0.0 100.0 100.0 100.0
35 0.0 0.0 0.0 100.0 100.0 100.0
36 0.0 0.0 0.0 100.0 100.0 100.0
37 0.0 0.0 0.0 100.0 100.0 100.0
38 0.0 0.0 0.0 100.0 100.0 100.0
39 0.0 0.0 0.0 100.0 100.0 100.0
40 0.0 0.0 0.0 100.0 100.0 100.0
41 0.0 0.0 0.0 100.0 100.0 100.0
42 0.0 0.0 0.0 100.0 100.0 100.0
43 0.0 0.0 0.0 100.0 100.0 100.0
44 0.0 0.0 0.0 100.0 100.0 100.0
45 0.0 0.0 0.0 100.0 100.0 100.0
46 0.0 0.0 0.0 100.0 100.0 100.0
47 0.0 0.0 0.0 100.0 100.0 100.0
48 0.0 0.0 0.0 100.0 100.0 100.0
49 0.0 0.0 0.0 100.0 100.0 100.0
50 0.0 0.0 0.0 100.0 100.0 100.0
51 0.0 0.0 0.0 100.0 100.0 100.0
52 0.0 0.0 0.0 100.0 100.0 100.0
53 0.0 0.0 0.0 100.0 100.0 100.0
54 0.0 0.0 0.0 100.0 100.0 100.0
55 0.0 0.0 0.0 100.0 100.0 100.0
56 0.0 0.0 0.0 100.0 100.0 100.0
57 0.0 0.0 0.0 100.0 100.0 100.0
58 0.0 0.0 0.0 100.0 100.0 100.0
59 0.0 0.0 0.0 100.0 100.0 100.0
60 0.0 0.0 0.0 100.0 100.0 100.0
61 0.0 0.0 0.0 100.0 100.0 100.0
62 0.0 0.0 0.0 100.0 100.0 100.0
63 0.0 0.0 0.0 100.0 100.0 100.0
64 0.0 0.0 0.0 100.0 100.0 100.0
65 0.0 0.0 0.0 100.0 100.0 100.0
66 0.0 0.0 0.0 100.0 100.0 100.0
67 0.0 0.0 0.0 100.0 100.0 100.0
68 0.0 0.0 0.0 100.0 100.0 100.0
69 0.0 0.0 0.0 100.0 100.0 100.0
70 0.0 0.0 0.0 100.0 100.0 100.0
71 0.0 0.0 0.0 100.0 100.0 100.0
72 0.0 0.0 0.0 100.0 100.0 100.0
73 0.0 0.0 0.0 100.0 100.0 100.0
74 0.0 0.0 0.0 100.0 100.0 100.0
75 0.0 0.0 0.0 100.0 100.0 100.0
76 0.0 0.0 0.0 100.0 100.0 100.0
77 0.0 0.0 0.0 100.0 100.0 100.0